    II
目錄 
 
中文摘要 .................................................................................................................................... III 
英文摘要 .................................................................................................................................... IV 
第一章 前言 ................................................................................................................................ 5 
1.1 研究背景 ......................................................................................................................... 5 
1.2 研究目的 ......................................................................................................................... 5 
第二章 實驗材料及方法 ............................................................................................................. 6 
2.1 壬基苯酚聚乙氧基醇類.................................................................................................. 6 
2.2 土壤樣品 ......................................................................................................................... 6 
2.3 污染土配置及填裝 ......................................................................................................... 6 
2.4 電動力管柱實驗 ............................................................................................................ 7 
2.5 NP 分析方法 ................................................................................................................... 7 
2.6 NP 液相萃取程序 ........................................................................................................... 8 
2.7 NP 固相萃取程序 ........................................................................................................... 8 
2.8 電動力實驗分析項目 .................................................................................................... 8 
2.9 電動力驗監測項目 ......................................................................................................... 8 
第三章 結果與討論 ..................................................................................................................... 9 
3.1 pH 值之變化 ................................................................................................................... 9 
3.2 電流密度與電滲透係數(ke)之變化 ................................................................................ 9 
3.3 處理效率 ....................................................................................................................... 10 
3.4.電動力去除機制 ........................................................................................................... 10 
第四章 結論 .............................................................................................................................. 10 
計畫成果自評 ............................................................................................................................ 12 
附錄一 ........................................................................................................................................ 13 
附錄二 ........................................................................................................................................ 28 
    IV 
Abstract 
 
    This study was investigated electrokinetic enhancement of regeneration performance of 
carbon nanotube (CNT) by electrokinetic process coupled with binary metallic oxide electrode 
(BMOE-EK). This innovative technology can effective enhance regeneration efficiency to prolong 
life cycle of CNT.  
    Test regeneration and absorb enduring the carbon nanotubes and is in charge of of saturation 
nonylphenol, consider the electrode kind in electrokinetic, it influences the parameter to operate 
liquid kind, electric potential slope lowering, operating time,etc., Dr.eye: probe into it and get rid 
of the mechanism and recycled efficiency. 
    Probe into the liquid and take a fancy to NP and endure the behavior of absorbing that the 
carbon nanotubes is in charge of at first, the result shows pH value was decreased and the 
absorbing amount is the higher. When 2.5 mg/L and pH 4 in NP, the absorbing amount can reach 
353.4 mg/g after 14 hr.. 
    Electrode prepared of this experiment, carrying on the treatment of 8 hr in 1V/cm, its C used 
to degrade the result and traditional electrokinetic makes and relatively makes and can a multiple 
1.68 of treatment results for the electrode looks of anode excellently, it is excellent to represent it 
of one BMOE and degrade carbon nanotubes that efficiency is far greater than the law of 
traditional electrokinetic. 
    Learn experimental result operate by liquid being at electrode for at the time of RuO2/Ti 
different operation liquid degrade efficiency of been for degrading influence of efficiency 
including: Sodium chloride (69.0%)  >NaOH (54.8%)  >Citric acid (48.7%) ,It show have 
getting better more relatively results at being for operation at sodium chloride, not may sodium 
chloride produce OCl- of in the electrolytic solution and at the same time the hydroxide free 
radical can degrade the base phenol of Ren effectively, than operate liquid degrade Ren to be base 
phenol result good for NaOH by hydroxide free radical. 
    Results show that, while combining the regeneration of electrokinetic and enduring the carbon 
nanotubes and is in charge of with one pair of metal electrodes, can promote and endure the recycled 
efficiency that the carbon nanotubes is in charge of by operating the selecting and selecting of the liquid and 
electrode material condition.. 
 
Key word: binary metallic oxide electrode, electrokinetic, nonylphenol, carbon nanotube, 
regeneration 
 
 
 
 6 
 
NP 與奈米碳管之吸附模式。 
2. 進行雙金屬氧化電極(BMOE)之製備，探討雙金屬氧化物電極應用於電動力技術進行
飽和吸附 NP 之奈米碳管再生處理及其降解途徑，並分析其副產物，以建立新穎之奈
米碳管再生處理技術。 
    綜合上述兩點，本研究將先進行奈米碳管與液相中 NP 之吸附實驗，再藉由電化學法再
生吸附飽和 NP 之奈米碳管，期發展出再生奈米碳管之新穎處理技術，以解決奈米碳管應用
於環境污染處理之價格昂貴及成本過高之問題。 
 
第二章 實驗材料及方法 
 
2.1 壬基苯酚聚乙氧基醇類 
本研究所使用壬基苯酚(Nonylphenol, NP)為向美國 Aldrich 購買之，其基本特性如表 2.1
所示。 
 
表 2.1 NP 基本特性 (Neamtu and Frimmel, 2006) 
NP  
Property Specification 
CAS registry number 84852-15-3 
Synonyms 4-nonylphenol, p-nonylphenol 
Molecular formula C15-H24-O 
Molecular weight (g/mol) 220.35 
Melting point (℃) -8 
Boiling point (℃) 295 to 320 
Specific gravity 0.95 
pKa 10.7 
Vapour pressure (mPa) 4.55 
logKow 4.2 to 4.48 
Henry’s law constant (Pa m3 /mol) 11.2 
Solubility (mg/L) 5.4 to 8 
 
 
2.2 奈米碳管配置及填裝 
    首先將奈米碳管混合渥太華砂(1：100)填至電動力試模中，每一層奈米碳管約為 5.05g，
每 2 公分裡置入一層，共六層。  
    本實驗電動力試模於長度 22 cm 及內徑 4.2 cm 之玻璃材質試模中進行(參見圖 2.1)，該試
模由陽極槽(5 cm 長)、試體(12 cm 長)及陰極槽(5 cm 長)等三部分所組成。電極槽與奈米碳管
混渥太華之砂體間放置耐酸鹼尼龍濾布及 Whatman #1 玻璃纖維濾紙，兩組雙金屬氧化物電極
(直徑 0.5 cm) 及兩組不鏽鋼棒，分別安置於陽極槽及陰極槽中，詳細設備如圖 2.1 所示。  
 8 
 
2.3 NP 分析方法 
以 HPLC-UV 偵測器進行分析。而層析管柱採用 25cm×4.6mm ID column packed with 5µm 
dp NH2 Hypersil APS-2 之分析管柱，，以 Methanol: water=4:1 為流洗液，UV 光偵測器波長為
277nm，每次注入分析量為 20 µl，設定於流量為 1.0 mL/min 下進行分析即可完成分析。 
 
2.4 NP 液相萃取程序 
在電動力法過程中，必須收集其兩極之操作流質液，利用液相萃取法將水樣中 NP 萃取
至甲醇中，以利 HPLC 分析之。液相萃取程序詳細步驟如下所述： 
1.取 10 ml NP 樣於試管中。 
2.加入 2 ml 之二氯甲烷於試管中。 
3.使用旋轉震盪機以 40 rpm 萃取 10 分鐘。 
4.取出試管下層液，再加入 2 ml 之二氯甲烷於原試管中 
5.重複步驟 3 ，萃取 5 分鐘。 
6.取出試管下層液與步驟 4 之下層液混合，進行氮氣吹乾(10~15 分鐘)，即得 NP 之殘留固
體物。 
7.以 2 ml 甲醇溶解 NP 之固體物，即可進行 HPLC 分析。 
 
2.5 NP 固相萃取程序 
待電動力實驗結東後，將土壤切片分析，利用固相萃取將土壤中 NP 移至甲醇中分析，
由此得知 NP 在土壤中的分佈情況，NP 固相萃取程序詳細步驟如下所述： 
1.取 5g 含 NP 土樣於試管中。 
2.加入 15 ml 之甲醇於試管中。 
3.將該試管置於旋轉震盪機，以 40 rpm 萃取 20 分鐘。 
4.將該試管置入離心機，以 2000 rpm 旋轉 10 分鐘。 
5.取出試管上層液，再置入於 2 ml 瓶，以備 HPLC 分析。 
2.6 電動力實驗分析項目 
1. 固相與水相 NP 濃度分析 
由異相中萃取至甲醇，將得到之萃取液經由高效能液相層析儀(HPLC-UV)進行分析。 
2. 奈米碳管 pH 值分析 
  土壤 pH 值分析方法依據行政院環保署環境檢測所公告之標準方法。將 20g 之土壤樣品
於 50 mL 之燒杯內，加入 20 mL 的去離子水，並於 30 分鐘內攪拌數次，待靜置 1 小時後直
接將 pH 電極浸入上層澄清液偵測 pH。 
 
2.7 電動力驗監測項目 
1.操作流質槽液 pH 值 
於電動力反應期間，每間隔時間自反應器之操作流質槽內抽取適當之操作流質，利用 pH 測
定儀測定其 pH 值。 
2.操作流質槽出流紀錄 
 10 
 
可能是因為處理時間較短，與傳統電動是以天為單位而有差異性。以其他雙氧化金屬物為 RT
陽極時，其電滲透流係數(ke)是介於 3.76~15.04 cm3/s，比 DI Water 的電滲透流係數(0.63~2.51)
高，代表電流通過較多，系統反應較大。 
本實驗之電流密度變化如同以 D.I. Water 為操作流質時，不若傳統電動力技術處理時明
顯著隨著時間變化而有最大值之電流密度產生，其原因亦為本系統處理時間較短且大部分 NP
均向陽極移動所導致。 
 
3.4 處理效率 
    比較操作流質對於處理效率之影響其操作條件電位坡降為 2 V/cm、處理時間為 8 hr 以及
陽極電極為 RT 時不同之操作流質處理效率分別為：0.1 M 氯化鈉(69.0%) > 0.2 M 氫氧化鈉
(54.8%) > 0.06 M 檸檬酸(48.7%)，此結果顯示當氯化鈉為操作流質時效果較佳，其可能原因
是因為氯化鈉在電解過程中會產生 OCl-，其具有強氧化性，因同時具有 OCl-以及氫氧自由基
可以有效降解壬基酚，比操作流質為氫氧化鈉藉由氫氧自由基降解壬基酚效果更佳。 
    當操作條件電位坡降為 2 V/cm、處理時間為 8 hr 不同之操作流質處理效率分別為本實驗
中比較 PbO2/Ti、PbO2-Co/Ti 及 PbO2/SnO2+Sb2O3/Ti 由操作流質中發現，PT 容易在檸檬酸中
剝落，導致其效果略差於經鍍上中間層之 PSST，以及在 PT 製程中加入 Co2+可以提昇其壬基
苯酚降解效果。 
 
3.5 電動力去除機制 
   本研究電動力移除機制主要可能有二：一為利用電動力產生電滲透流驅使土相中 NP 藉此
移動出流至陰極槽之中；另一為藉由離子遷移往兩極槽之中。利用固相與液相所收集之 NP
濃度，將其換算成質量單位。使用 NaOH 為操作流質時其降解效果 73.2%電力耗損約於 9.64 
kwh/m3，其相對高於使用氫氧化鈉 60.2%之 7.02 kwh/m3。 
    整體來看系統中之 NP 幾乎都由陽極端所收集，隨著去除效率愈高於奈米碳管及渥太華
砂之收集量愈低。由此可知於電動力系統處理土相中 NP 時，主要收集量於陽極端，依判斷
主要去除機制係藉由離子遷移將 NP 由陰極往陽極方向移動，同時也會有少部分之電滲透流
將 NP 帶往陰極。 
 
 
第四章 結論 
1. 液相中之 NP 與奈米碳管之吸附行為，約在 14 小時候可達吸附飽和，在 pH 環境偏酸性時
其吸附量較高，隨著 pH 值增加吸附量會減少，於 NP 初始濃度為 2.5 mg/L 及 pH=4 時，
其吸附量最高可達 353.4 mg/g。 
2. 於酸性環境奈米碳管吸附量較高，係因為 NP 溶於水中後會可能會釋放 H+，使得 NP 帶負
電荷，不過，當 pH = 2 時，可能因為太酸導致奈米下碳管本身微孔結構被破壞，因此吸
附量有略略下降。本實驗進行奈米碳管之界達電位量測，發現奈米碳管於 pH 為 2.7 以下
帶正電，所以於酸性環境中有利於吸附 NP。 
3. 本實驗製備之雙金屬氧化電極，在 1V/cm 進行 8 小時之處理，其降解效果與傳統電動力所
使用之 C 棒做為陽極電極相較下皆可提昇 1.6~1.8 倍之處理效果，代表雙金屬電極其降解
效能遠大於傳統電動力法之碳棒。 
 12 
 
計畫成果自評 
 
本計畫於進行過程中，曾因實驗設備未能及時配合，導致實驗時程延長三個月，目前均已按
照計畫規劃，完成研究內容，達到預期目標。參與計畫之研究生均獲致完善實驗技能學習之
訓練，本研究成果頗佳，已分別發表於2009 The 9th Symposiums on Enectrokinetic Remediation 
以及2010 中華民國環工年會 第三十五廢水處理技術研討會，部分成果尚在整理發表中。 
 
 
 
 
 
 
 
 
 
 
 
 
 
 
 
 
 
 
 
 
 
 
 
 
 
 
 
 
 
 
 
 
 
 
 
 
 14 
 
其中非離子型界面活性劑具有較佳的浸透性、洗淨力與乳化能力，因此有去污與強大的洗淨
能力。烷基酚聚乙氧基醇類（APnEO）為使用最廣之非離子界面活性劑(邱煌銘，2008)，包
括辛基酚（OPnEO）類、壬基酚聚乙氧基醇(nonylphenol polyethoxylates, NPnEO)類、丁基酚
（BPnEO）類三種，其中有 80％以上之產品為 NPnEO(呂育諭，2002)，若 NPnEO 經由微生
物的好氧與厭氧分解，乙氧醇基(Ethoxylate,EO)鍵因被降解而逐漸變為短鍵物質，最終形成
NP(李琬萍，2003;郭錦堂，2008)。 
壬基苯酚會藉由各種廢棄途徑而排放至環境中，每年全球產量約 50 萬噸，大約 60%進
入環境中。假如排放至空氣中，其 25℃下之蒸氣壓為 4.55 mPa(Neamtu et al., 2006)，在此狀
況下壬基酚以氣狀和粒狀兩種型態存在於大氣中，可利用濕式或乾式沉降方式去除。而壬基
酚是高厭水性有機物(logKow= 4.8-5.3)，排放至土壤中之壬基苯酚其平均土壤吸附係數(Koc)約
為 31,000，因此於土壤中不易移動；若將其排放至水中，壬基苯酚對縣浮固體和沉澱物具很
強的吸附力，在水中之揮發性較弱，其容易累積在污泥、底泥及土壤中，當其進入土相後，
將由吸附、生物降解、滲出(leaching)及植物汲取(plant uptake)等機制來主導其傳輸以及對環境
之影響。我國環保署於 2001 年在北、中、南及東部的 40 條河川進行 NP 及 NPn EO 全面調
查，檢測其平均值濃度為 4.87 µg/L、平均檢出率 54.2%，相較於其他國家高(張小萍，2002;
王正雄，2000; Yuan et al., 2004)，且當 NP 含量高於 8.2 µg/L 時，NP 就會對環境造成影響包
括水生生物的雌性化、雄性生殖力和幼體生存率降低(Soares et al., 2008)；在世界各國環境中
流佈情形比較，以土相部份較為嚴重。 
而現有處理這些環境荷爾蒙之技術有光催化(Tasi et al., 2009)、電化學法(Tanaka et al., 
2002)、電動力技術(Kuramitz et al., 2004)、高級氧化程序(UV-Fenton)(林坤儀，2004)及生物降
解(Chang et al.,2003)等，上述的方法中通常要較高的能量供給、需要大量化學藥品，且反應
時間較長。而奈米碳管已被證實擁有許多優異之特質，包含機械特性、電極特性、高度化學
及熱穩定性、高比表面積；因此已被應用於複合材料補強、電場放射、奈米設備、物質吸附、
以及作為觸媒載體。且其吸附水中有機污染物，或從廢氣中回收去除有機蒸氣時，具有去除
效率高及操作簡易等優點，因此被廣泛的應用於污染防治。經化學氣相沉積法合成的碳奈米
管，常常伴生有大量雜質（例如奈米碳顆粒、石墨碎片以及催化劑小顆粒等），因此，奈米
碳管需要純化步驟以去除表面雜質提升後續使用效益。而奈米碳管之純化工作有兩部分：一
是去除催化劑小顆粒，二是去除雜質碳。對碳雜質的去除有化學方法及物理方法兩種途徑。
化學方法是利用氧化劑對奈米碳管與碳奈米顆粒等碳雜質之間不同的氧化速率來完成的。常
用的氧化劑有氧氣（或空氣）、二氧化碳、硝酸、混合酸、重絡酸鉀及次氯酸鈉等。物理方
法主要是利用超音波降解、離心、沉積和過濾等辦法來達到雜質碳與奈米碳管分離的目的，
從而獲得潔淨的奈米碳管(黃琬鈴，2008)。 
本研究主要探討奈米碳管吸附液相 NP 之吸附行為之動力吸附模式、等溫吸附及熱力學
參數，並由各吸附方程式進行模擬與迴歸運算，藉此了解奈米碳管與 NP 之吸附特性與機制。 
二、實驗材料及方法 
2.1. NP 基本特性 
本研究所使用之壬基苯酚 (Nonylphenol, NP) 為向美國 Aldrich 購買之，其基本特性如表
 16 
 
其吸附平衡後，將其懸浮液以 0.45 µm 之濾紙過濾，立即將澄清液以 HPLC 進行分析。吸附
量(q)則由起始濃度(C0)、澄清液濃度(Ct)、CN 量(m)及溶液體積(V)依式(1)算得。 
                       
m
VCCq t )( 0 −=                            (1) 
 
2.4 動力吸附模式 
2.4.1 擬一階動力模式 
    擬一階動力模式常被用來模擬固相和液相之間的吸附系統，近年來也常使用在液相之吸
附系統，其方程式如下： 
 
                        
)(1 tet qqkdt
dq
−=
                          (2) 
    將上式積分，當 t = 0 時，qt = 0 ；當 t = t 時，qt = qt ，則方程式為： 
                 
t
kqqq ete 303.2
log)log( 1−=−
                     (3) 
   qe：為系統中液相平衡濃度 (mg/g) 
   qt：單位時間所吸附之濃度 (mg/g) 
                      t：反應時間 (hr) 
k1：一階反應速率常數 (1/hr) 
    若吸附之數據循擬一階反應，則 ln(qe-qt)對時間 t 作圖可得一迴歸直線，可由斜率求出
擬一階反應速率常數 k1 值。 
 
2.4.2 擬二階動力模式 
    其吸附系統屬於二階，其方程式如下： 
 
0                  22 )( tet qqkdt
dq
−=
                               (4) 
     
    將上式積分，當 t = 0 時，qt = 0 ；當 t = t 時，qt = qt ，則方程式為： 
 
                     
t
qqkq
t
eet
11
2
2
+=
                              (5) 
 
                  k2：二階反應速率常數 (g/hr×mg) 
  若吸附實驗數據依循擬二階反應，則
tq
t 對 t 作圖可得一迴歸直線，可由斜率求出擬二階反
應速率常數 k2 值。 
 18 
 
( ) ( ) 





−+−
=
s
es
e
C
Ce
aCC
Caqq
11
0
                   (10) 
式中， 
                      q：固相平衡吸附量(mg/g) 
  0q ：單層飽和吸附量(mg/g) 
                      eC ：吸附平衡後溶液中溶質溶度(mg/L) 
  Cs：污染物在水中的飽和濃度(mg/L) 
                       a：為 BET 方程式之常數 
 
2.7 吸附熱力學參數 
本實驗為計算熱力學參數，將設計於溫度介於 15~45℃下之吸附結果，分別計算其自由
能、熵(entropy)、焓(enthalpy)，以了解其此吸附反應之熱力學性質。實驗過程中，溫度會影
響反應中的平衡常數，故針對溫度探討吸附熱力學。前述之吸附行為，依吸附劑與吸附質間
之鍵結力不同，分為物理性吸附與化學性吸附，可藉由吸附熱 ∆Η來判斷。化學反應中皆會
產生熱的轉移，根據焓之變化量（Enthalpy, ∆Η），可判斷反應為吸熱或放熱反應。若 ∆Η為
正值，則反應為吸熱反應；反之，則為放熱反應。然無法藉由此參數，來判定反應自發與否，
因此利用二個參數熵（Entropy, ∆S）及自由能（Free energy, ∆G）之變化量判斷，當 ∆S＞0，
∆G＜0 時，反應為自發反應；反之，則為非自發反應，但兩者為 0 時，則系統達平衡。 
    於定溫下，將目標污染物於液固相分佈平衡後，計算其平衡常數值。 
                       
e
s
C
C
K =0                                  (11) 
上式中，                 
K0：熱力學平衡常數 
   於定溫下，將目標污染物於液固相分佈平衡後，藉吸附方程式計算其熱力平衡常數 K 值，
並作 ln(K)(Y 軸) 與 1/T(X 軸)之關係圖，以最小平方法求出迴歸曲線，利用外差求出當 1/T
為零時之 Y 軸截距，即為 K0(Gupta et al., 2002)，此時即可利用下式求標準自由能(Standard Free 
energy, △G) 
                 △G = -RTln K
                                         
(12) 
    上式中，                 
R：氣體常數 
T：絕對溫度(K) 
    另標準焓(△H0)可由 van’t Hoff equation 計算而得 
 






−
∆−
=−
12
21
0
1020
11)()(ln)(ln
TTR
toTTH
TKTK
         (13) 
 20 
 
CNT(g/L)
0.000 0.002 0.004 0.006 0.008 0.010 0.012
N
P 
u
pt
a
ke
 (m
g/
g)
0
50
100
150
200
250
300
350
400
[NP] = 2.5mg/L 
pH = 6 
T = 25℃ 
 
 
圖 2 奈米碳管與 NP 飽和吸附時間之測試結果 
附量為(353 mg/g)，在考量最佳吸附效率且具經濟性，以不浪費吸附材料為原則，故選擇以奈
米碳管濃度 0.0005 g/L 作為日後實驗之吸附劑量，與楊(2008)比較發現其多層奈米碳管經過 3
小時達飽和吸附量 284.64 mg/g，單層奈米碳管經過 10 小時達其吸附飽和量為 318.22 mg/g，
本實驗之飽和吸附量略高於其研究，可能是因為奈米碳管本身材質以及改質方式不同所造成
吸附效果之差異 
3.3 動力吸附試驗性。 
    動力吸附實驗目的是為了解吸附量隨時間之變化的關係，以求得達到吸附平衡所需之時
間，作為後續吸附平衡時間之選擇。本實驗將 NP 初始濃度定為 2.5 mg/L，於不同系統反應
之 pH 值(2、4、6、8、10)，於 25℃進行不同 pH 條件下奈米碳管對於 NP 之吸附量，其結果
如圖 4 所示。 
    奈米碳管對於NP之吸附量隨著時間增加而提昇，於吸附時間 14小時後吸附量為 207~270 
mg/g，而 24 小時後吸附量為 224~ 289 mg/g，兩者吸附量略為相近，顯示其於 14 小時後已接 
 
 
 
 
 
 
 
 
 
 
 
 
 
圖 3 奈米碳管劑量對於 NP 吸附量之影響 
近吸附飽和，故將吸附平衡時間決定於 14 小時。 
    將動力吸附實驗結果中達到平衡時間 14 小時之吸附量與 pH 值關係繪於圖 5，可發現奈
米碳管對 NP 吸附量受到 pH 值之影響，當 pH 於酸性時吸附量較高 
 (289.2 mg/g)，而 pH 提升至鹼性時(pH = 4 到 pH = 10)，吸附量亦有逐漸下降之趨勢(256.2 
mg/L)。於酸性環境奈米碳管吸附量較高，係因為 NP 溶於水中後會可能會釋放 H+，使得 NP
帶負電荷，不過，當 pH = 2 時，可能因為太酸導致奈米下碳管本身微孔結構被破壞，因此吸
附量有略略下降。本實驗進行奈米碳管之界達電位量測，結果如圖 6 所示，發現奈米碳管於
pH 為 2.7 以下帶正電，所以於酸性環境中有利於吸附 NP。 
    根據實驗結果模擬動力方程式其結果如圖7及圖8所示，本吸附實驗擬二階動力方程式與
 22 
 
pH
0 2 4 6 8 10 12
NP
 
u
pt
a
ke
 
(m
g/
g)
0
50
100
150
200
250
300
350
15、25、35 及 45℃，控制系統 pH 值為 6.0，得知反應之反應常數 K 值及迴歸係數 R2值，繪
製 lnK 
 
 
 
 
 
 
 
 
 
 
 
 
 
 
 
 
 
圖 5 溶液 pH 值對於 NP 於奈米碳管飽和吸附量之影響(T=14 hr) 
 
  
 
 
 
 
 
 
 
 
 
 
 
 
 
 
 
    圖 6 奈米碳管界達電位之量測結果 
pH
0 2 4 6 8 10 12 14
Ze
ta
 
po
te
n
tia
l (m
v)
-100
-50
0
50
100
pHZPC=2.7 
 24 
 
Ce (mg/L) 
0 1 2 3
NP
 
u
pt
a
ke
 
(m
g/
g)
0
100
200
300
400
500
Langmuir Isotherm
Freundlich Isotherm
BET Isotherm
( [NP]：2.5 mg/L、T：25℃、CNT：0.001g) 
 
    本實驗改變系統溫度以探討奈米碳管於不同溫度對NP吸附量之影響。分別將溫度設定為
及1/T之關係圖(如圖10所示)其R2 = 0.8977。一般來說可藉由吸附熱∆H判斷其屬何種吸附，依
吸附劑與吸附質之間作用力之大小及種類，可分為物理吸附(Physical adsorption)及化學吸附
(Chemical adsorption)。物理吸附反應之∆H值低於10 kcal/mol以下；化學吸附反應之∆H值範圍
約為20~100 kcal/mol，本實驗之∆H值是在物理吸附範圍，因此本實驗為物理吸附。由表4看出，
本實驗由線性迴歸分析結果得到∆H為0.32 kcal/mol其為正值，故吸附屬於吸熱反應，因此提
高溫度有助於反應之發生。且因∆G為負值之狀況與∆S為正值下，表示此吸附反應為自發性反
應。 
 
表 3 奈米碳管吸附 NP 之等溫吸附實驗模擬參數 
a：參見式(8)； 
b：參見式(6)；
c：參見式(10) 
 
 
 
 
 
 
 
 
 
 
 
 
 
 
 
 
 
 
 
 
 
 
 
 pH 
 2 4 6 8 10 
Freundlich n 0.3178 0.1933 0.1922 0.1875 0.1499 
Isotherma R2 0.9357 0.9714 0.9828 0.9854 0.9791 
Langmuir 
Isothermb 
qm(mg/g) 133.33 59.88 59.17 56.81 38.61 
R2 0.7664 0.8943 0.933 0.9411 0.9190 
BET 
Isothermc 
R2 0.9992 0.9984 0.9987 0.999 0.9868 
 26 
 
帶正電，所以於酸性環境中有利於吸附 NP。 
3. 未處理之奈米碳管其表面擁有較多之細小顆粒，經過硝酸純化可使奈米碳管表面雜質減少
許多，未純化前其表面積為 122.07 m2/g，經由硝酸純化過後其比表面積增加至 146 m2/g。
代表改質後吸附劑表面積增加，可以提供更多的吸附位置，有助於提昇其吸附能力。 
4. 液相中之 NP 與奈米碳管之吸附行為，約在 14 小時候可達吸附飽和，在 pH 環境偏酸性時
其吸附量較高，隨著 pH 值增加吸附量會減少，於 NP 初始濃度為 2.5 mg/L 及 pH=4 時，
其吸附量最高可達 353.4 mg/g。 
5. 於酸性環境奈米碳管吸附量較高，係因為 NP 溶於水中後會可能會釋放 H+，使得 NP 帶負
電荷，不過，當 pH = 2 時，可能因為太酸導致奈米下碳管本身微孔結構被破壞，因此吸
附量有略略下降。本實驗進行奈米碳管之界達電位量測，發現奈米碳管於 pH 為 2.7 以下
帶正電，所以於酸性環境中有利於吸附 NP。 
6. 奈米碳管進行液相 NP 吸附時，經等溫吸附實驗後進行模擬與迴歸運算後，顯示奈米碳管
對於 NP 之等溫吸附較符合以 BET 等溫吸附方程式，而 Freundlich 與 Langmuir 和 BET 等
溫吸附最大的不同點在於 BET 等溫吸附為多層吸附；而藉由吸附動力方程式模擬後得知，
本吸附試驗是遵循擬二階動力方程式其 R2 介於 0.957~0.979 間；經由熱力學參數得知奈米
碳管吸附壬基酚是自發性的吸熱反應。 
 
五、文獻回顧 
1. Sharpe, R.M., Fisher J.S., Millar M.M., Jobling S., Sumptwe J.P.“Gestational and lactational 
exposure of rats to xenoestrogens results in reduced testicular size and sperm 
production. ”Environ. Health Perspect, 103, pp.1136-1143. (1995) 
2. 王正雄，“環境荷爾蒙壬基苯酚之調查研究”，台灣公共衛生雜誌，20，pp.202-215(2001)。 
3. Cheng, C.Y. and Ding, W.H.,“Determination of nonylphenol polyethoxylates in household 
detergents by high-performance liquid chromatography.”Journal of Chromatography A, 968, 
pp.143-150. (2002) 
4. 邱煌銘，“利用零價鐵結合氧化劑(H2O2/Na2S2O8)程序處理非離子界面活性劑之研究”，國
立台北科技大學環境工程與管理研究所碩士論文(2008)。 
5. 呂育諭，“藉由高效能液相層析儀配合螢光偵測器同時分析食物中烷基酚和烷基酚乙氧基
醇之濃度”，國立陽明大學環境衛生研究所碩士論文(2002)。 
6. 李琬萍，“人體血漿中壬基苯酚、辛基苯酚及丁基苯酚之同時測定方法研究”，國立陽明
大學環境衛生研究所碩士論文(2003)。 
7. 郭錦堂，“生活污水廠中壬基苯酚之分布”，中國醫藥大學環境醫學研究所碩士班碩士論
文(2008)。 
8. Neamtu, M. and Frimmel,F. H.“Photodegradation of endocrine disrupting chemical 
nonylphenol by simulated solar UV-irradiation.” Sci. Total Environ., 369, pp.295-306. (2006) 
9. 張小萍，“壬基苯酚(NP)清潔劑的代謝物對河川生態之影響”，環境檢驗雙月刊，40，
pp.3-7(2002)。 
 28 
 
 
附錄二 
Regeneration of Spent Carbon Nanotube by Electrokinetic Process with Binary Metallic 
Oxide Electrodes of MnO2/Ti、RuO2/Ti, and PbO2/Ti 
 
Ching Yuan*, Yung-Dun Dai, Chung-Hsuang Hung  
 
Department of Civil and Environmental Engineering, National University of Kaohsiung, Kaohsiung 811, Taiwan 
 
本文章發表於 The 9th Symposiums on ELectrokinetic Remediation, Kaohsiung, Taiwan 
 
ABSTRACT 
This study was aimed to investigate the regeneration performance of carbon nanotube saturated with 150 mg/L of 
nonylphenol (NP) by electrokinetic process with binary oxide electrodes under potential gradient of 2V/cm for 8 hr 
treatment. Twenty experiments were conducted with four processing fluids of de-ionized water, citric acid (0.06M), 
NaOH (0.2 M), and NaCl (0.1M) in a Pyrex glass cylindrical cell (4.2 cm in diameter×12 cm in length). Two inert 
electrode of carbon (C) and titanium (Ti) and three binary metallic electrodes of MnO2/Ti (MT), RuO2/Ti (RT), and 
PbO2/Ti (PT) were investigated in this study. Results were shown that higher EO permeability (3.8×10-6-10.0×10-6 
cm2/Vs ) was found in Citric acid , NaOH, and NaCl systems than in DI water system (0.6×10-6-2.5×10-6 cm2/Vs).  The 
regeneration efficiency of CNT was 20.2-50.0%, 60.6-69.3%, 57.7-68.1% and 47.8-77.0% in DI water system, citric 
acid system, NaOH system, and NaCl system, repectively. This might be resulted from production of OCl- ion in NaCl 
system. Among the investigated electrodes, the RuO2/Ti electrode was shown the best degradation efficiency of NP.   
It was concluded that both processing fluid and binary metallic electrode were definitely play a key role in enhancement 
of regeneration performance of CNT. The Electrokinetic beheavior of specimen pH, current density and mass balance in 
investigated systems would also be discussed in this study.  
 
KEYWORDS: Binary metallic oxide electrode, carbon nanotube, electrokinetic process, regeneration performance. 
 
* Corresponding author. Tel.: +886-7-591-9178; Fax: +886-7-591-9376 
Email: caroline@nuk.edu.tw (Ching Yuan) 
 
INTRODUCTION 
Carbon nanotube (CNT) has been used as a better adsorbent for organic pollutants compared with activated 
carbon due to its high specific surface area except for the cost. The common regeneration processes would destroy the 
adsorbent and result in shortage more or less. Hence, an innovative regeneration technology is highly needed to prolong 
the life of carbon nanotube and enhance the economic efficacy. 
Anode chemical oxidation has been demonstrated a good degradation performance for nonylphenol 
polyethoxylate, phenol, and chlorinated organics in aqueous phase. The innovative electrodes used were binary metallic 
oxide electrode, such as MnO2/Ti, PbO2/Ti, RuO2/Ti, and SnO2/Ti.  The advantage of this technology includes easy 
operation, no extra chemical addition, high mineralization efficiency, and low cost.  In aqueous electrochemical 
reaction, the OH radical would be produced from hydrolysis of water. 
−+ ++•→ eHHOOH aqaq )()(2     (1) 
The OH radical would be, then, reacted with metallic oxide coated on electrode surface by EQ (2)~(5) to result in 
mineralization of pollutants.  
−+ ++→•+ eHMOxxHOM    (2) 
MROxRMOx +→+          (3) 
−+ ++•→+ eHOHMOxOHMOx )(2   (4)          
 
−+ +++→+• neMOxnHCOROHMOx 2)(  (5) 
  30
 
  
 
 
 
 
 
 
 
 
 
 
 
 
binary metallic oxide electrode play a key role to enhance regeneration performance of CNT. 
NP was existed as three fractions of residual retained in CNT layer, removal migrated to reservoirs 
by EK process, and degradation by electrochemical reaction. Results were shown in Figure 2. It was 
found that more NP was degraded than removed to reservoir in investigated systems. That means 
binary metallic electrode would definitely enhance mineralization of NP. Highest degradation was 
found in NaCl system, in which  38.4 - 69.0% of NP was degraded and 4.5 - 11.1% of NP was 
migrated to reservoirs. The RuO2/Ti electrode was shown the best degradation efficiency of NP.    
 
(a) 
(b) 
(d) 
(c) 
Figure 2. Fractional distribution of NP in BMOEEK 
systems with various processing fluids. (a) DI water; 
(b) Citric acid; (c) NaOH; (d) NaCl. 
袁菁 國立高雄大學 
 
2
出 國 報 告 
 
(一) 參加會議經過 
本次會議第 103 屆空氣及廢棄物管理年會（The 98th Air & Waste Management 
Association Annual Meeting and Exhibition） 於 99 年 6 月 22 日至 25 日在 Calgary, 
Canada 舉行。此一年度盛會是全美規模最大學術年會之一，共吸引全球在空氣
污染控制、廢棄物管理及土壤/地下水復育約一~二千餘人參與，本次會議主要目
的之一為藉由研討會的舉行，讓各國之學者專家及研究人員及相關領域之工程
師，藉由論文發表及討論，來進行國際性之學術交流活動，提供最新之研究成果，
於會議中藉由發表論文之方式使各國學者專家交換各專業領域相關理論及技術
之開發經驗，分享該領域最先進之研究成果；主要目的之二為藉由現場儀器廠商
之設備展及美加政府於環保執行計畫成果，讓與會人員充分了解整治技術之精
進。 
 
本次會議包含空氣污染、環境管理及廢棄物等三大領域(Group)，細分約 350 個
主題，超過 500 篇之論文發表。本人發表一篇論文，論文題目為：「Application of 
Surfactant-Assisted Electrokinetic (SAEK) Process coupled with carbon 
nanotube barrier on Chlorinated solvent removal from soil matrix」(6/23 下午
Poster 發表)，歸類為廢棄物組(Waste Group)之 WR-2(詳見下面分類)，發表論文
之方式包括海報展出以及口頭演講的方式，本次海報展出方式與以往略有不同，
即將 poster 發表統一於特定時段，所有與會人員均至會場與 poster 作者進行充分
溝通，此次試辦若果不錯，將持續擴大辦理。本人同時參與空氣污染組(Air Group)
之相關活動。 
廢棄物組細分如下： 
Waste Group 
  WM  MUNICIPAL AND MEDICAL WASTE DIVISION 
     WM-1 Integrated Waste Management, Waste Prevention, and Recycling 
     WM-3 Municipal Waste Treatment 
     WM-4 Medical Waste Treatment 
  WR HAZARDOUS, RADIOACTIVE AND MIXED WASTE 
     WR-1 Site Characterization, Investigation and Remediation/Redevelopment 
     WR-2 Management and Treatment of Hazardous, Radioactive, and Mixed Wastes 
 (再細分五個子題) 
國科會補助計畫衍生研發成果推廣資料表
日期:2010/12/09
國科會補助計畫
計畫名稱: 以雙金屬氧化物電極提昇電動力技術整治壬基酚(NP)污染土壤之礦化率及其降
解機制之研究 
計畫主持人: 袁菁 
計畫編號: 98-2221-E-390-007- 學門領域: 環境工程
無研發成果推廣資料
其他成果 
(無法以量化表達之成
果如辦理學術活動、獲
得獎項、重要國際合
作、研究成果國際影響
力及其他協助產業技
術發展之具體效益事
項等，請以文字敘述填
列。) 
無 
 成果項目 量化 名稱或內容性質簡述 
測驗工具(含質性與量性) 0  
課程/模組 0  
電腦及網路系統或工具 0  
教材 0  
舉辦之活動/競賽 0  
研討會/工作坊 0  
電子報、網站 0  
科 
教 
處 
計 
畫 
加 
填 
項 
目 計畫成果推廣之參與（閱聽）人數 0  
