 行政院國家科學委員會補助專題研究計畫 
■成果報告   
□期中進度報告 
 
奈米銀棒的綠色合成與特性研究 
 
 
計畫類別〆■個別型計畫   □整合型計畫 
計畫編號〆NSC  99 -2221-E-035-001 
執行期間〆 2010 年 8 月 01 日至 2011 年 7 月 31   日 
 
  執行機構及系所〆逢甲大學  纖維與複合材料學系 
 
 
  計畫主持人〆蔡宜壽 
計畫參與人員〆徐帄承 朱培瑄 詹佩旻 李雲漫 
 
 
 
成果報告類型(依經費核定清單規定繳交)〆■精簡報告  □完整報告 
 
本計畫除繳交成果報告外，另頇繳交以下出國心得報告〆 
□赴國外出差或研習心得報告 
□赴大陸地區出差或研習心得報告 
■出席國際學術會議心得報告 
□國際合作研究計畫國外研究報告 
 
 
處理方式〆除列管計畫及下列情形者外，得立即公開查詢 
            ■涉及專利或其他智慧財產權，□一年□二年後可公開查詢 
中   華   民   國  100  年  10  月 31   日 
 
Abstract 
Disperse fine precious metal particles of uniform shape and high purity are increasingly needed in many 
areas of the human life. The present study describes the formation of rod-like silver nanoparticles or silver 
nanorod by one-pot reduction of silver nitrate in a PVP-CTAB mixed solution. The average length of the 
obtained particles ranges from 0.05 to 0.5 μm. The control of particle size, length, shape and degree of 
dispersion was achieved by varying the reaction parameters, such as the concentration of reducing agent, the 
amount of protective agent, the temperature of medium, and the reaction time. The final products were 
characterized by the classical anaylsis methods, such as UV-Vis spectrometer, scanning electron microscopy, 
transmission electron microscope, and dynamic light scattering particle size analyzer. 
 
Keywords: Silver nanorod、CTAB、PVP 
 
 
 
 
 
 
 
 
 
 
 
 
 
 
 
 
 
 
 
 
 
 
 
 
 
 
 
 
 
 
Table1-1 Properties of Ag [4] 
Atomic number 47 
Atomic weight 107.8683 
Melting point 961.78 
Boiling point 2162 ℃ 
Density 10490 kg/m3 
Crystal structure 面心立方晶格(FCC) 
Electric conductivity 6.3×107 m〄Ω 
Thermal conductivity 429 W/(m〃K) 
 
1-1 奈米銀棒的製造方法 
  常見的一維奈米材料製備方法可分為三大類:板模生成法、化學溶液法及物理化學法。其中板模法
又可細分為硬板模和軟板模，利用已經具有奈米孔洞通道或高分子聚合物吸附於某些晶面的方式，控
制原子堆積方向做非等性的成長，行程一維奈米結構，為現今廣泛使用合成金屬奈米線的方法々物理
化學法則被認為效率最佳，但缺點是需要特殊設備。 
 
1-1-1 模版生成法(template) 
    模版生成法（template）為現今最廣泛用以合成金屬奈米線的方法，使用具有奈米尺寸模板，例
如鋁膜或高分子膜等多孔質材料作為成長基板，在奈米尺寸的孔洞中，填入溶液、凝膠，反應生成一
維奈米尺寸的產物，經過選擇性移除多孔模板後，便可得到單獨的一維奈米材料。 
       硬性板模是指利用已經和成具有奈米級孔洞通道當作反應時的板模，控制原子團簇堆積在孔
洞之中非等向性的成長而形成一維奈米結構。硬性模版包括內含通道的陽極氧化鋁(AAM)[12]、沸石
內的孔洞[13]、中孔洞二氧化矽[14,15](mesoporous silica)、奈米碳管[16]等々板模合成法的優點為可生
成均勻的奈米線，也可藉由板模大小來控制銀線的直徑、長度和成長方向。但此法的缺點為取出銀線
必頇在腐蝕環境中將模板溶解且避免傷到所成長的銀線，以獲得奈米線。利用此法所合成的銀奈米線，
若直徑大於 50 nm 以上則大部分會呈現多晶結構，若要應用做為導線上，則會有導電率不佳的缺點。 
    軟性模板是指利用一些高分子聚合物作為反應時的模板，例如:聚合物膜(PVA、PVP)【17】、DNA
鏈【18】、CTAB 膠質粒子【19】等。利用這些高分子聚合物於銀的某些晶面有較強的吸附能力，吸
附後即形成阻擋層。在硝酸銀還原過程中抑制特定銀晶面的原子堆積，呈現非等向性的生長以製備一
維奈米結構。使用軟性模板進行合成的缺點為必頇經由反覆的清洗動作，才能移除銀奈米線上的高分
子聚合物。 
1-1-2 化學合成法 
1-1-2-1 晶種促進生長法(seed-mediated growth) 
    晶種促進生長法首先由 C.J.Murphy 其團隊所發表[20-22]，晶種促進生長法製備金屬奈米粒子主
要可分為兩個步驟〆第一步為製備金屬的晶種溶液，利用含有可形成較小圓形微胞(micelle)之包覆劑
(如 citrate)水溶液，加入金屬鹽(金或銀的鹽類)，然後以強還原劑(如 NaBH4)使其還原成 3~5  nm 的小
晶種顆粒々第二步則是將晶種加入成長液中成長，成長液中包含了金屬鹽、可形成較大或柱狀微胞之
界面活性劑(如 CTAB)、弱還原劑(如 ascorbic acid)、NaOH(調節酸鹼值，影響弱還原劑的還原能力)，
對奈米棒及奈米線的成長而言，晶種提供了成核的位置々界面活性劑和各晶面間的鍵結能力強弱導致
單一方向的晶體成長。在晶種促進生長法中，界面活性劑為控制一維奈米結構成長極重要的ㄧ環，一
維奈米結構之長寬比(aspect ratio)、形狀、尺寸及產量，皆可利用界面活性劑之濃度或是反應時間來
控制，產物之尺寸及形狀分佈亦十分均勻。 
     
圖 1-2-1 第四級銨鹽結構[11]         圖 1-2-2 CnH2n+1N(CH3)+3 CTAB 離子結構 
                                       (n=12,l=2.3nm;n=16,l=2.8nm) 
 
 
 
圖 1-2-3CTAB 的結構式[27,28] 
 
二、原理 
2-1 PVP 保護機制 
    奈米粒子會因為粒徑減小而造成表面能急遽增大，使得粒子間容易聚集造成團聚現象。故為了製
備粒徑小且分布均一之奈米粒子，通常利用靜電排斥力(electronic repulsive force)、立體障蔽(steric 
hindrance)與網狀結構物(gel network)等來抑制粒子聚集，因此必頇加入分散劑阻止這些粒子聚集。 
    一一般而言，立體障礙分散劑分為兩大類〆第一類為界面活性劑，而第二類為高分子，其原理都
是利用其吸附在粒子表面，藉由延伸出去之分子鏈以提供立體障礙阻止粒子聚集，進而獲得分散穩定
性佳之奈米粒子。對奈米銀而言，最常見之保護劑為 PVP，Shin 等人[29]發現當 PVP 分子量變大時，
其 PVP 分子鏈較長可以吸附較多銀離子，使得最後合成之奈米銀粒子大量集中，因此容易聚集成較
大粒子。。而銀原子因被 PVP 分子鏈所造成的立體障礙造成銀原子間無法碰撞聚集成大粒子，以達
到保護效果。 
PVP 與銀離子反應作用如下: 
Ag
＋＋PVP ⇔ Ag(PVP)＋   
添加 PVP 後與 Ag +協調配位，而產生 Ag(PVP) +複合物，使 Ag +穩定。  
加入葡萄糖水溶液後其反應作用如下: 
CH2OH
-
(CHOH)4
-
CHO＋2[Ag(PVP)]＋＋2OH -→CH 2OH-(CHOH)4-COOH＋2Ag(PVP)＋H2O 
 
圖 2-2-1 界面活性劑分子在水溶液中安定化之方向[27] 
 
 
圖 2-2-2 微胞構造圖[27]  
  (a) Hartley 之球狀微胞 
                                   (b) McBain 之小型球狀離子微胞 
                                   (c) 層狀微胞 
                                   (d) X 光繞射之肥皂微胞立體圖 
 
圖 2-2-3 表面張力-濃度曲線與界面活性劑之溶解狀態[27] 
 12. 溴化十六烷基三甲基銨(Cethytrimethyl Ammonium Bromide  CTAB) 
景明化工公司出品之試藥 
    分子式〆C16H33(CH3)3nBr 
    帄均分子量:364.45 g/mol 
 
13. 乙二醇(Ethylene glycol EG) 
景明化工公司出品之試藥 
分子式〆HOCH2CH2OH 
    分子量: 62 g/mol 
 
14. 檸檬酸鈉 sodium citrate 
景明化工公司出品之試藥 
分子式〆Na3C6H5O7 
    分子量: 258.07 g/mol 
 
3-1-2 實驗儀器 
1.紫外線/可見光光譜儀(UV/visible Spectrophotometer)〆  
  型號〆UV-1600  
  廠商〆CHROM TECH  
 
2.可調式吸管(Precision Air Displacement Pipette)〆  
  型號〆Research 100, 1000, 5000  
  廠商〆EPPENDORF  
 
3.磁石攪拌機(Magnetic Stirrer) 
  型號〆sp131325 
  廠商〆Barnstead 
4.超音波震盪器(Ultrasonic Cleaner)〆  
  型號〆D-78224  
  廠商〆ELMA  
 
5.電子天帄(Electronic Balance)〆  
  型號〆B204-S  
  廠商〆COLLEGE  
 
6.雷射粒徑分析儀( Laser Diffraction Submicron Particle Size Analyzer) 
  型號: N4PLUS  
  廠商:BECKMAN COULTER，   
 
3-2 實驗步驟 
3-2-1 合成奈米銀 
3-3-2 奈米銀棒之合成 
 
圖 3-3-2-1 奈米銀顆粒之製備流程圖 
 
四、結果與討論 
4-1 合成奈米銀 
    本實驗固定奈米銀的製作方法，如圖 3-2-1-1。由實驗結果得知利用多元醇法所合成之奈米銀粒
徑分析如圖 4-1-1(a)及圖 4-1-2 所示得知奈米銀之粒徑約 7.3 nm，由圖 4-1-3 UV/vis 吸收光譜可看出，
在波長 400 nm 處有銀之表面電漿共振吸收峰，此為奈米銀之特徵吸收峰，由此可證明此還原體系成
功合成奈米銀粒子。 
 
 
          (a)                          (b) 
圖 4-1-1(a) TEM 下觀察奈米銀顆粒(b)合成色奈米銀樣本之顏色 
 
 (a)                                      (b) 
 
(c)                              (d) 
 
(e)                               (f) 
圖 4-2-1在固定其他參數下不同還原劑之 UV/vis 吸收光譜 (a)硼氫化鈉(b)甲醛(C)聯胺(d)維他命C(e)
檸檬酸鈉(f)葡萄糖 
 
4-3 不同還原劑濃度對合成奈米銀棒之影響 
    當固定銀離子添加量時，還原劑濃度便會影響到還原出的粒子多寡及反應之速率，因此本實驗生
成奈米銀棒時，適當的還原劑濃度即為探討因素之一。本章節探討不同濃度的葡萄糖水溶液、硼氫化
鈉水溶液以及甲醛對生成奈米銀微粒的影響，改變不同的葡萄糖水溶液（1 wt%、3 wt %、5 wt %），
並固定其他實驗參數來進行合成奈米銀棒。 
        實驗結果的 UV/vis 吸收光譜如圖 4-3-1、圖 4-3-3、圖 4-3-5 以及 TEM、SEM 如圖 4-3-2、圖
4-3-4、圖 4-3-6 所示，由 UV/vis 吸收光譜圖中可以看出硼氫化鈉、葡萄糖以及甲醛在波長為 600 nm
處皆有表面電漿共振波鋒的產生且皆有紅移的現象產生，表示成功的生成奈米銀棒。當硼氫化鈉為 1 
wt%時，於 TEM 如圖 4-3-2(a)可看出有橢圓的奈米銀顆粒且還原出的粒子大小均一性不佳々當硼氫化
鈉濃度提升至 3 wt%時，如圖 4-3-2(b)可明顯的看出有細長的銀棒產生，但其長寬比的均一性還不佳々
0 
0.5 
1 
1.5 
2 
0 500 1000 
A
b
so
r
b
a
n
c
e
 
Wavelength (nm) 
硼氫化鈉  
Ag nano 
0 
0.5 
1 
1.5 
2 
2.5 
3 
0 500 1000 
A
b
so
r
b
a
n
c
e
 
Wavelength (nm) 
甲醛 
Ag nano 
0 
0.5 
1 
1.5 
2 
0 500 1000 
A
b
so
r
b
a
n
c
e
 
Wavelength (nm) 
聯胺 
Ag nano 
0 
0.5 
1 
1.5 
2 
0 500 1000 
A
b
so
r
b
a
n
c
e
 
Wavelength (nm) 
維他命C 
Ag nano 
0 
0.5 
1 
1.5 
2 
2.5 
3 
3.5 
0 500 1000 
A
b
so
r
b
a
n
c
e
 
Wavelength (nm) 
 檸檬酸鈉  
Ag nano 
0 
0.5 
1 
1.5 
2 
2.5 
3 
0 500 1000 
A
b
so
rb
a
n
ce
 
Wavelength (nm) 
葡萄糖 
Ag nano 
         圖 4-3-3 葡萄糖不同濃度之 UV/vis 吸收光譜 
 
 
(a)                    (b)                  (c) 
 
(d)                     (e) 
圖 4-3-4 SEM 下觀察添加不同濃度之葡萄糖所合成出奈米銀棒(a)1 % 
(b)(c)3 wt%(d)(e)5 wt% 
 
 
圖 4-3-5 甲醛 1ml 之 UV/vis 吸收光譜 
 
1.9 
2 
2.1 
2.2 
2.3 
2.4 
2.5 
0 200 400 600 800 1000 
A
b
so
rb
an
ce
 
Wavelength (nm) 
1% 
3% 
5% 
2 
2.1 
2.2 
2.3 
2.4 
2.5 
0 200 400 600 800 1000 
A
b
so
rb
a
n
ce
 
Wavelength (nm) 
4-5 不同硝酸銀濃度對合成奈米銀棒之影響 
El-Sayed 等人發現在製備金奈米棒時，改變銀離子所加入的濃度可以調控金奈米棒的長寬比
(Aspect ratio) [33]，因此本實驗希望藉由調整硝酸銀(AgNO3 )的添加量之過程中獲得不同的長寬比
(aspect ratio)之奈米銀棒。 
實驗結果的 UV/vis 吸收光譜如圖 4-5-1 得知，在添加各種不同濃度 AgNO3 的條件下，其與奈米
銀相比皆有紅移的現象，約在 1000 nm 左右皆產生表面電漿共震吸收峰，因此我們判斷在添加不同濃
度 AgNO3 的條件下皆有奈米銀棒的生成。 
    於實驗中調整 AgNO3 的添加濃度可獲得不同長寬比的奈米銀棒，當反應完成後，透過穿透式電
子顯微鏡(TEM)的影像可以觀測加入不同濃度 AgNO3 所生成產物之長寬比的變化，如圖 4-5-2 得知當
AgNO3 的添加濃度為 6.2 mM 時，奈米銀棒的長寬比約為 3︰2々AgNO3 添加濃度為 7.4 mM 時，奈米
銀棒的長寬比約為 2︰1々AgNO3 添加濃度為 8.2 mM 時，奈米銀棒的長寬比約為 3︰1々AgNO3 添加
濃度為 9 mM 時，奈米銀棒的長寬比約為 4︰1。因此由實驗得知奈米銀棒的長寬比會隨著銀離子(Ag+)
濃度提高而有所改變，反應系統中[Ag+]的濃度從原本的 6.8 mM 慢慢提升至 10 mM，所合成出的奈米
銀棒長度越長。造成此現象之原因為反應系統中添加的 AgNO3 濃度越高，反應系統中[Ag
+
]濃度亦越
多，代表所加入反應系統中的銀離子莫耳數也隨之增加。當反應過程所提供銀離子的來源變多，使得
較多銀原子容易堆積在奈米銀棒上，造成所生長出的奈米銀棒有增長的趨勢。 
 
圖 4-5-1 添加不同濃度 AgNO3 之 UV/vis 吸收光譜 
 
 
(a)                     (b)                    (c)   
 
(d) 
圖 4-5-2 TEM 觀察添加不同濃度 AgNO3 之奈米銀棒(a)6.8 mM(b)7.4mM(c)8.2 mM(d)9 mM 
0 
0.05 
0.1 
0.15 
0.2 
0.25 
0.3 
0 500 1000 1500 
A
b
so
r
b
a
n
c
e
 
Wavelength (nm) 
 6.8mM   
 7mM   
 7.8mM   
8.2mM   
 9mM  
 10mM   
 7.4mM  
未來展望 
   透過本實驗希望可將奈米銀棒產量達到可控制狀態，以便在後續製作透明導電薄膜時得到較佳的
導電性以及光穿透性。除了控制奈米銀棒的含量外，也可以利用奈米銀線的長短、粗細提升其導電性。
藉由改變生成奈米銀棒所需的晶種來源以及所使用的界面活性劑，亦可以控制奈米銀棒的長短、粗細。
利用較長且較細的奈米銀棒進行透明導電薄膜製備，使銀棒的接觸點更多，可獲得交錯更佳的網絡結
構，以維持較佳的導電性以及光穿透性。 
    另外，本實驗希望再藉由不同簡便的方法合成奈米銀棒，使其邁向綠色環保製程以及工業化量產
等狀態。 
 
 
 
 
 
 
 
 
 
 
 
 
 
 
 
 
 
 
 
 
 
 
 
 
 
 
 
 
 
 
 
 
 
 
 國科會補助專題研究計畫成果報告自評表 
請就研究內容與原計畫相符程度、達成預期目標情況、研究成果之學術或應用價
值（簡要敘述成果所代表之意義、價值、影響或進一步發展之可能性）、是否適
合在學術期刊發表或申請專利、主要發現或其他有關價值等，作一綜合評估。 
1. 請就研究內容與原計畫相符程度、達成預期目標情況作一綜合評估 
▇  達成目標 
□ 未達成目標（請說明，以 100 字為限） 
□ 實驗失敗 
□ 因故實驗中斷 
□ 其他原因 
說明〆 
 
2. 研究成果在學術期刊發表或申請專利等情形〆 
論文〆■已發表 □未發表之文稿 □撰寫中 □無 
專利〆□已獲得 ■申請中 □無 
技轉〆□已技轉 ■洽談中 □無 
其他〆（以 100 字為限） 
本研究計劃成果預計發表於國外期刊一篇，專利與技轉皆在申請洽談中，對
於學術與光電、生技之相關產業所生產之產品具有貢獻以及價值。 
 
 
3. 請依學術成就、技術創新、社會影響等方面，評估研究成果之學術或應用價
值（簡要敘述成果所代表之意義、價值、影響或進一步發展之可能性）（以
500 字為限） 
  本實驗分別採用界面活性劑自組裝及磁場輔助簡易製備之方法去替代以往模板法、晶種
合成法等，並預期改善過往的模板法需使用腐蝕性物質及克服晶種合成法產物不均之缺
失，克服以往製備上會造成環境污染、高成本、低產量等性質。  
     此計畫針對製備奈米銀棒之技術上即具創新性，而所製成的奈米銀棒期望可 1. 改善
現今技術所之產物不均現象 2.提高國內工業之量產性  3.提升我國在製備極小元件導電
性之需求々4.提升我國各類電子零件之電流密度及效率  5.改善現今製備奈米銀棒所造成
之環境汙染々6.對於染料敏化太陽能電池之電極開發有正向的提升。  
    因此，此奈米銀棒之研製方式將對我國在奈米技術之研究、奈米材料應用與開發具極
大之價值々對於提升電子產品、通訊產品與傳統產業發展不論在技術、效益、實務應用與
潛力亦有很大之貢獻。 
 
附件二 
技術/產品應用範圍 
微電子、光電元件、生物感測器、太陽能電池等方面 
技術移轉可行性及預期
效益 
本計畫執行完成之後，不僅在技術方面可立即轉移給國內相關廠
商，同時對奈米銀棒的技術及經濟效益之提昇方面皆具開創性與
前瞻性;另外參與本計畫之工作人員亦將熟悉奈米銀之理論及製
備技術，將來若投入業界或研究單位皆能提供此方面之專業才
能，研究中除可訓練學生瞭解材料相關分析儀器的原理、操作及
數據解析判讀外，更可培養學生將材料特性和實際應用的關係作
系統性的瞭解，同時在學術及工業二者交流上深具意義，相對地
亦可帶動業界的技術紮根與升級。因此本計畫整體而言對學術理
論與產業應用都有相當的貢獻價值。預計可謂合作廠商帶來每年
五百萬產值，台灣相關機能性產業帶來每年三億商機。 
     註〆本項研發成果若尚未申請專利，請勿揭露可申請專利之主要內容。 
 
 
 
 
 
 
 
 
 
 
 
 
 
 
 
 
 
 
 
 
 
 
 
 
 
 本次會議為期 3 天，本人被安排報告場次為 6/20 下午 (13.50 - 14.10)在 Nanomaterial coatings 場次
進行論文發表，發表題目為” Impact of Cetytrimethylamonium Bromide (CTAB) Concentrations and 
Reductants on the Size and Yield of Silver Nanorods “，該會議室約可容納五十多人，整個報告過程約
25 分鐘，之後留有 5 分鐘為發問時間，在場多位與會人士紛紛表示對於本實驗利用晶種提供了成
核的位置成長奈米銀棒的研究相當感興趣，並發問許多有關於材料之與未來發展應用方向問題。接
下來幾天為各國學者論文發表，在聆聽過多場講演後可了解各地學者之領域與及研究方向進行交
流。 
 
三、考察參觀活動(無是項活動者略) 
6/20 傍晚由主辦單位安排參觀特羅爾海坦市 Trollhättan 的 Innovatum 科學園區。 
 這個科學園區的目的是匯集育成中心，重大科研項目和公司網絡，以激發創意和創新的過程。每個
科技園區有兩個或三個領域。他們中的大多數也有育成中心的活動。 
科學園區的特徵包括: 
 智能，高效的生產方法。  
 技術在該領域的電影和其他媒體和可視化和模擬產品和生產工藝。  
 能源技術和環境工程和可持續發展的產品和經營理念。 
6/21 由主辦單位安排參觀 saab 汽車博物館。 
四、建議 
無 
五、攜回資料名稱及內容 
(a) SMT25/第二十五屆表面技術國際研討會摘要集(proceeding abstracts)。 
(b) SMT25/第二十五屆表面技術國際研討會發表程序（Final Preliminary program）。 
(C) SMT25 參展廠商相關料。 
六、其他 
活動照片 
 SMT25 論文發表時留影 
 
 
 
參觀 Innovatum 科學園區時與德國學者合影 
 
 
 
第 2 頁，共  6 頁   
 
國科會補助出席國際會議報告 
 
                                              100 年 7 月 12 日 
報 告人姓 名 
 
 
蔡宜壽 
所 屬 學 院 
學 系 ( 所 ) 
工 學 院 
紡 織 工 程 研 究 所 
會 議 期 間 
及 地 點 
 
100 年 6 月 20 日
起至 100 年 6 月 22 
日止 
補 助 項 目 
及 金 額 
□ 機票費 ______ 元 
□ 註冊費 ______ 元 
□ 生活費 ______ 元 
 
會 議 名 稱 
中文：第二十五屆表面技術國際研討會 
英文：25 International Conference on SURFACE MODIFICATION 
TECHNOLOGIES 
 發  表  論 
 文  題  目 
中文：CTAB 濃度與還原劑對奈米銀棒尺寸與產率的影響 
英 文 ： IMPACT OF CETYTRIMETHYLAMONIUM BROMIDE (CTAB) 
CONCENTRATIONS AND REDUCTANTS ON THE SIZE AND YIELD OF 
SILVER NANORODS 
 
 
 
一、會議介紹： 
表面處理技術國際研討會（International Conference on SURFACE 
MODIFICATION TECHNOLOGIES）每年舉辦一次，去年在德國德勒司登
第 4 頁，共  6 頁   
6/20 傍晚由主辦單位安排參觀特羅爾海坦市 Trollhättan 的 Innovatum科學園區。 
 這個科學園區的目的是匯集育成中心，重大科研項目和公司網絡，以激發創意
和創新的過程。每個科技園區有兩個或三個領域。他們中的大多數也有育成中心
的活動。 
科學園區的特徵包括: 
 智能，高效的生產方法。  
 技術在該領域的電影和其他媒體和可視化和模擬產品和生產工藝。  
 能源技術和環境工程和可持續發展的產品和經營理念。 
6/21 由主辦單位安排參觀 saab 汽車博物館。 
 
五、攜回資料名稱及內容 
(a) SMT25/第二十五屆表面技術國際研討會摘要集(proceeding abstracts)。 
(b) SMT25/第二十五屆表面技術國際研討會發表程序（Final Preliminary 
program）。 
(C) SMT25 參展廠商相關料。 
六、照片 
 
第 6 頁，共  6 頁   
 
參觀 Innovatum科學園區時與德國學者合影 
 
 
 
 
 
 
 
 
99 年度專題研究計畫研究成果彙整表 
計畫主持人：蔡宜壽 計畫編號：99-2221-E-035-001- 
計畫名稱：奈米銀棒的綠色合成與特性研究 
量化 
成果項目 實際已達成
數（被接受
或已發表）
預期總達成
數(含實際已
達成數) 
本計畫實
際貢獻百
分比 
單位 
備 註 （ 質 化 說
明：如數個計畫
共同成果、成果
列 為 該 期 刊 之
封 面 故 事 ...
等） 
期刊論文 0 0 0%  
研究報告/技術報告 0 0 0%  
研討會論文 0 0 0% 
篇 
 
論文著作 
專書 0 0 0%   
申請中件數 0 0 0%  專利 已獲得件數 0 0 0% 件  
件數 0 0 0% 件  
技術移轉 
權利金 0 0 0% 千元  
碩士生 0 0 0%  
博士生 0 0 0%  
博士後研究員 0 0 0%  
國內 
參與計畫人力 
（本國籍） 
專任助理 0 0 0% 
人次 
 
期刊論文 1 1 100%  
研究報告/技術報告 0 0 0%  
研討會論文 1 1 100% 
篇 
 
論文著作 
專書 0 0 0% 章/本  
申請中件數 0 0 0%  專利 已獲得件數 0 0 0% 件  
件數 0 0 0% 件  
技術移轉 
權利金 0 0 0% 千元  
碩士生 3 3 100%  
博士生 0 0 0%  
博士後研究員 0 0 0%  
國外 
參與計畫人力 
（外國籍） 
專任助理 0 0 0% 
人次 
 
